Generated by pymatgen.io.lammps.data.LammpsData

512  atoms

 2  atom types

0.000000 24.1268  xlo xhi
0.000000 24.1268  ylo yhi
0.000000 24.1268  zlo zhi

Masses

1  72.640
2  127.60

Atoms

1 1 1.34877 1.91035 1.56978 
5 2 4.7025 1.72548 1.36615 
9 1 7.56605 1.72698 1.53776 
13 2 10.6527 1.79443 1.49405 
65 1 13.235 1.77019 1.30854 
69 2 16.7162 1.56966 1.26268 
73 1 19.4372 1.58867 1.53816 
77 2 22.603 1.63071 1.51508 
6 2 1.33805 4.73587 1.48871 
17 1 1.64695 7.79298 1.87693 
2 1 4.41808 4.47703 1.23601 
14 2 7.38929 4.555 1.54262 
21 2 4.60581 7.54301 1.71131 
25 1 7.53402 7.78287 1.78319 
10 1 10.423 4.93533 1.71973 
29 2 10.7407 7.67782 1.43098 
70 2 13.5272 4.40231 1.53886 
81 1 13.63 7.84442 1.23085 
66 1 16.4304 4.32954 1.43005 
78 2 19.4464 4.40427 1.34334 
85 2 16.6759 7.42177 1.45797 
89 1 19.4402 7.33582 1.42331 
74 1 22.5847 4.55679 1.3192 
93 2 22.4542 7.54215 1.76771 
22 2 1.52103 10.6408 1.88421 
18 1 4.48403 10.3706 1.85034 
30 2 7.4249 10.4618 1.63042 
26 1 10.7117 10.8276 1.59368 
86 2 13.4588 10.7456 1.44832 
82 1 16.6665 10.3393 1.56946 
94 2 19.544 10.6051 1.95223 
90 1 22.7282 10.6347 1.35899 
129 1 1.57314 13.5906 2.09325 
133 2 4.48145 13.5121 1.83397 
137 1 7.40636 13.7478 1.52569 
141 2 10.3734 13.6076 1.59473 
193 1 13.6008 13.9298 1.72086 
197 2 16.6481 13.6908 1.81102 
201 1 19.5806 13.6261 1.78983 
205 2 22.5594 13.8735 1.90793 
134 2 1.51505 16.7337 1.63547 
145 1 1.23618 19.7038 1.64609 
130 1 4.34209 16.5689 1.62383 
142 2 7.33859 16.5668 1.4713 
149 2 4.49953 19.8551 1.66837 
153 1 7.41169 19.656 1.39933 
138 1 10.6817 16.7375 1.38309 
157 2 10.4132 19.6979 1.39552 
198 2 13.5431 16.816 1.72303 
209 1 13.4618 19.7708 1.70133 
194 1 16.4439 16.7856 1.68214 
206 2 19.6378 16.4538 1.7091 
213 2 16.5315 19.6515 1.54512 
217 1 19.4736 19.7531 1.55793 
202 1 22.42 16.7251 1.98288 
221 2 22.4936 19.6554 1.83266 
150 2 1.44817 22.7755 1.53156 
146 1 4.44704 22.7918 1.43768 
158 2 7.61342 22.792 1.17383 
154 1 10.4722 23.2419 1.26065 
214 2 13.4882 22.6757 1.61925 
210 1 16.8742 22.6339 1.84012 
222 2 19.6765 22.5132 1.54613 
218 1 22.5085 23.0774 1.82644 
8 2 1.15342 1.66928 4.86674 
33 1 1.97216 1.52114 7.64138 
4 1 4.40927 1.57636 4.42454 
16 2 7.23011 1.70007 4.37886 
37 2 4.86015 1.85825 7.35483 
41 1 7.74603 1.76287 7.69096 
12 1 10.6438 1.71861 4.38783 
45 2 10.6287 1.52719 7.43486 
72 2 13.4772 1.58057 4.43018 
97 1 13.708 1.68423 7.38425 
68 1 16.5331 1.74334 4.13027 
80 2 19.5168 1.56266 4.51737 
101 2 16.5212 1.57324 7.46363 
105 1 19.671 1.45662 7.40154 
76 1 22.5589 1.96107 4.33325 
109 2 22.5431 1.50053 7.55453 
3 1 1.3391 4.72601 4.46614 
24 2 1.13956 7.73889 4.7997 
38 2 1.42475 4.43996 7.6104 
49 1 1.35071 7.38865 7.66475 
7 2 4.03359 4.71298 4.55282 
11 1 7.43252 4.4508 4.43208 
20 1 4.34887 8.02811 4.86384 
32 2 7.15286 7.59556 4.49093 
34 1 4.23605 4.62903 7.28126 
46 2 7.51557 4.63711 7.60535 
53 2 4.24167 7.63361 7.591 
57 1 7.47637 7.69739 7.7718 
15 2 10.149 4.8485 4.4147 
28 1 10.2914 7.85515 4.77447 
42 1 10.3126 4.5148 7.5835 
61 2 10.4764 7.53407 7.5692 
67 1 13.3149 4.53896 4.64313 
88 2 13.4096 7.38136 4.6313 
102 2 13.4788 4.45503 7.53335 
113 1 13.5669 7.66391 7.3986 
71 2 16.1942 4.55056 4.38144 
75 1 19.3241 4.55039 4.49811 
84 1 16.3551 7.54511 4.56077 
96 2 19.286 7.50427 4.68093 
98 1 16.2418 4.51951 7.63388 
110 2 19.5145 4.42462 7.6171 
117 2 16.638 7.53668 7.57186 
121 1 19.6607 7.63298 7.53038 
79 2 22.4811 4.66329 4.72002 
92 1 22.3912 7.81042 4.52487 
106 1 22.0885 4.68001 7.6238 
125 2 22.5867 7.66176 7.71878 
19 1 1.06778 10.7181 4.92819 
54 2 1.25129 10.602 7.95897 
23 2 4.41998 10.8325 4.74513 
27 1 7.23634 10.7406 4.87441 
50 1 4.45677 10.41 7.85715 
62 2 7.48988 10.7047 7.72798 
31 2 10.3225 10.7373 4.61204 
58 1 10.5612 10.4257 7.82857 
83 1 13.458 10.7457 4.7293 
118 2 13.5624 10.5574 7.78575 
87 2 16.2708 10.5834 4.73969 
91 1 19.3174 10.2018 4.69268 
114 1 16.5962 10.5093 7.71897 
126 2 19.5945 10.9221 7.64157 
95 2 22.4076 10.8532 4.73906 
122 1 22.5155 10.446 7.53772 
136 2 1.53653 13.8673 4.81152 
132 1 4.3651 13.6358 4.90542 
144 2 7.38816 13.6989 4.61562 
165 2 4.51171 13.58 7.92413 
169 1 7.39728 13.4808 7.62937 
140 1 10.5358 13.773 4.75209 
173 2 10.2113 13.7075 7.62597 
200 2 13.5206 13.5848 4.56221 
225 1 13.6906 13.6897 7.65482 
196 1 16.5717 13.6409 4.60806 
208 2 19.5523 13.6281 4.69201 
229 2 16.4603 13.5272 7.83856 
233 1 19.5365 13.7285 7.58051 
204 1 22.8705 13.778 4.98328 
237 2 22.55 13.664 7.91718 
131 1 1.32604 16.7302 4.69291 
152 2 1.46203 19.7639 4.57683 
166 2 1.70028 16.4351 7.63217 
177 1 1.60966 19.1337 7.43317 
135 2 4.6806 16.7799 4.63307 
139 1 7.54783 16.6828 4.1939 
148 1 4.78654 19.8577 4.46744 
160 2 7.65559 19.7827 4.50893 
162 1 4.74956 16.4313 7.66088 
174 2 7.59683 16.8299 7.50469 
181 2 4.47613 19.8643 7.59319 
185 1 7.65538 19.5521 7.5922 
143 2 10.5906 16.7285 4.4776 
156 1 10.413 19.6044 4.6389 
170 1 10.614 16.7502 7.65022 
189 2 10.5344 19.7357 7.31762 
195 1 13.3334 16.6689 4.60913 
216 2 13.6528 19.6523 4.64425 
230 2 13.5956 16.5517 7.69464 
241 1 13.7638 19.6355 7.78638 
199 2 16.5203 16.6663 4.76123 
203 1 19.6634 16.6947 4.80957 
212 1 16.4472 19.4874 4.90633 
224 2 19.7416 19.6494 4.82822 
226 1 16.9921 16.694 7.94252 
238 2 19.7845 16.4243 7.74335 
245 2 16.6863 19.7441 7.63703 
249 1 19.8579 19.6076 7.59216 
207 2 22.5382 16.5835 4.90859 
220 1 22.5973 19.7942 4.89516 
234 1 22.8391 16.4295 7.8899 
253 2 22.6484 19.4641 7.82094 
147 1 1.46451 22.7648 4.98045 
182 2 1.86063 22.4021 7.62148 
151 2 4.51109 22.8422 4.6215 
155 1 7.36488 22.7397 4.52127 
178 1 4.78296 22.5573 7.84103 
190 2 7.67739 22.9835 7.5377 
159 2 10.5127 22.6108 4.23467 
186 1 10.6508 22.7419 7.77627 
211 1 13.3108 22.7306 4.69898 
246 2 13.6823 22.6251 7.68729 
215 2 16.673 22.7103 4.67888 
219 1 19.7235 22.7793 4.55095 
242 1 16.5826 22.7131 7.73496 
254 2 19.5353 22.4824 7.68558 
223 2 22.5688 22.6389 4.84194 
250 1 22.7072 22.4322 7.64238 
40 2 1.94746 1.54656 10.6402 
36 1 4.68885 1.65274 10.6536 
48 2 7.84908 1.78411 10.5218 
44 1 10.9536 1.60199 10.4766 
104 2 13.6884 1.37739 10.6113 
100 1 16.8163 1.46419 10.3144 
112 2 19.6486 1.20544 10.5053 
108 1 22.5429 1.41969 10.6138 
35 1 1.48082 4.65652 10.4099 
56 2 1.47177 7.51147 10.8247 
39 2 4.63858 4.57324 10.628 
43 1 7.44156 4.5849 10.5262 
52 1 4.79087 7.35775 10.7563 
64 2 7.69132 7.70102 10.5599 
47 2 10.7333 4.69304 10.7272 
60 1 10.6421 7.54897 10.5872 
99 1 13.5345 4.44138 10.4432 
120 2 13.5465 7.50254 10.6278 
103 2 16.5504 4.46706 10.6186 
107 1 19.4858 4.4915 10.5733 
116 1 16.3437 7.35927 10.6571 
128 2 19.6406 7.19356 10.5432 
111 2 22.8895 4.59476 10.6571 
124 1 22.7943 7.43378 10.6886 
51 1 1.71517 10.6327 11.0996 
55 2 4.43062 10.5764 10.8476 
59 1 7.73037 10.8635 10.762 
63 2 10.4308 10.6077 10.574 
115 1 13.5019 10.5866 10.5742 
119 2 16.4639 10.4944 10.7116 
123 1 19.6122 10.5017 10.5858 
127 2 22.2979 10.5832 10.6985 
161 1 1.45332 13.4286 8.0454 
168 2 1.48312 13.8012 10.8506 
164 1 4.44912 13.3289 11.1545 
176 2 7.33946 13.763 10.6134 
172 1 10.5102 13.7434 10.7537 
232 2 13.4602 13.5696 10.602 
228 1 16.7705 13.5384 10.7454 
240 2 19.6628 13.5141 10.8576 
236 1 22.276 13.5073 11.0033 
163 1 1.54224 16.9222 10.6742 
184 2 1.4716 19.7167 10.8743 
167 2 4.55263 16.812 10.6791 
171 1 7.63759 16.9021 10.4065 
180 1 4.54817 19.7267 10.9261 
192 2 7.4752 19.9264 10.5018 
175 2 10.4324 16.7587 10.5908 
188 1 10.5355 19.6654 10.4413 
227 1 13.8075 16.2418 10.5864 
248 2 13.4862 19.6573 10.6047 
231 2 16.6694 16.4251 10.793 
235 1 19.6361 16.5616 11.0858 
244 1 16.7708 19.463 10.9134 
256 2 19.7972 19.4089 10.8211 
239 2 22.6174 16.5607 10.9217 
252 1 22.744 19.4326 10.9892 
179 1 1.72805 22.8497 10.6482 
183 2 4.76695 22.8093 10.6864 
187 1 7.73744 22.7121 10.4534 
191 2 10.6491 22.8703 10.6354 
243 1 14.0293 22.4292 10.7226 
247 2 16.8999 22.3746 10.702 
251 1 19.8149 22.6141 10.4673 
255 2 22.6042 22.6369 10.5509 
257 1 1.62885 1.38289 13.725 
261 2 4.65133 1.67268 13.331 
265 1 7.73985 1.3302 13.253 
269 2 10.6174 1.7069 13.5969 
321 1 13.8752 1.59192 13.5881 
325 2 16.7216 1.39193 13.6151 
329 1 19.7713 1.2374 13.5491 
333 2 22.8959 1.23928 13.5647 
262 2 1.71502 4.34784 13.8953 
273 1 1.7245 7.27636 13.6743 
258 1 4.73182 4.52014 13.6596 
270 2 7.68069 4.78744 13.5934 
277 2 4.92782 7.61106 13.6277 
281 1 7.88335 7.65148 13.8132 
266 1 10.491 4.78933 13.5963 
285 2 10.7153 7.61027 13.6612 
326 2 13.5666 4.24081 13.7911 
337 1 13.6747 7.64019 13.4251 
322 1 16.3986 4.24506 14.0007 
334 2 19.936 4.36289 13.4872 
341 2 16.7981 7.13234 13.6291 
345 1 19.6904 7.39898 13.313 
330 1 22.8543 4.35621 13.3395 
349 2 22.7356 7.28285 13.7182 
278 2 1.64441 10.5799 13.8996 
274 1 4.80823 10.4769 13.8301 
286 2 7.69208 10.6675 13.5115 
282 1 10.7915 10.8114 13.3392 
342 2 13.6693 10.5994 13.6274 
338 1 16.6323 10.3977 13.5387 
350 2 19.6822 10.3711 13.7616 
346 1 22.6164 10.281 13.6732 
385 1 1.44732 13.2736 13.904 
389 2 4.72505 13.7012 14.0216 
393 1 7.80102 13.6499 13.8736 
397 2 10.5942 13.6467 13.5696 
449 1 13.3899 13.553 13.6809 
453 2 16.504 13.457 13.7775 
457 1 19.1922 13.4803 13.9795 
461 2 22.7791 13.2309 13.9059 
390 2 1.53643 16.5446 13.6964 
401 1 1.4427 19.4516 13.7677 
386 1 4.34628 16.5549 13.7268 
398 2 7.61697 16.5723 13.657 
405 2 4.63111 19.7706 13.6856 
409 1 7.67579 19.4219 13.3802 
394 1 10.5057 17.0189 13.6015 
413 2 10.4461 19.9022 13.3166 
454 2 13.5436 16.6465 13.7578 
465 1 13.4841 19.6141 13.6525 
450 1 16.4717 16.6521 14.0685 
462 2 19.8242 16.3322 14.0185 
469 2 16.7303 19.5562 13.8819 
473 1 19.7052 19.4826 13.7287 
458 1 22.5954 16.3769 14.0029 
477 2 22.5924 19.2628 13.9938 
406 2 1.50197 22.478 13.6403 
402 1 4.80621 22.5459 13.8237 
414 2 7.52046 22.6607 13.4422 
410 1 10.8973 22.9792 13.5635 
470 2 13.669 22.4976 13.6096 
466 1 16.9922 22.4376 13.6867 
478 2 19.7344 22.3417 13.68 
474 1 22.7804 22.1957 13.6513 
264 2 1.87102 1.52314 16.6694 
289 1 1.74651 1.47014 19.6832 
260 1 4.77873 1.52008 16.5756 
272 2 7.92743 1.67588 16.396 
293 2 4.69733 1.52535 19.4032 
297 1 7.64355 1.67384 19.3853 
268 1 10.8598 1.90873 16.4316 
301 2 10.7571 1.76798 19.5738 
328 2 13.854 1.49607 16.6182 
353 1 13.8656 1.26426 19.6314 
324 1 16.6697 1.15319 16.5573 
336 2 19.9056 1.48862 16.4681 
357 2 16.7641 1.40835 19.5104 
361 1 19.7162 1.27775 19.6771 
332 1 22.758 1.31316 16.5021 
365 2 22.7905 1.18644 19.6604 
259 1 1.82914 4.58236 16.7188 
280 2 1.65172 7.40233 16.7858 
294 2 1.49189 4.51651 19.6619 
305 1 1.5537 7.54572 19.7363 
263 2 4.75152 4.44779 16.498 
267 1 7.68505 4.54758 16.6089 
276 1 4.71067 7.86569 16.8721 
288 2 7.62962 7.67312 16.785 
302 2 7.71393 4.54502 19.4925 
309 2 4.46992 7.55549 19.7062 
313 1 7.62951 7.85123 19.8758 
290 1 4.82963 4.65967 19.7344 
271 2 10.7179 4.58686 16.7741 
284 1 10.8804 7.7277 16.6352 
298 1 11.0195 4.71007 19.834 
317 2 10.6085 7.63237 19.6631 
323 1 13.742 4.62523 16.4806 
344 2 13.8364 7.62633 16.4592 
358 2 13.7394 4.61151 19.6004 
369 1 13.8086 7.50117 19.5386 
327 2 16.5591 4.27285 16.7675 
331 1 19.6412 4.2472 16.456 
340 1 16.7347 7.48642 16.6704 
352 2 19.9198 7.34284 16.6364 
354 1 16.8135 4.46277 19.6882 
366 2 19.8029 4.22283 19.5029 
373 2 16.7203 7.43388 19.5275 
377 1 19.8356 7.39975 19.6324 
335 2 22.9444 4.36355 16.5219 
348 1 22.7945 7.32213 16.4653 
362 1 22.7752 4.22226 19.4896 
381 2 22.7393 7.24961 19.7708 
275 1 1.43879 10.3142 16.8644 
310 2 1.56498 10.3625 19.9097 
279 2 4.83666 10.6397 16.7596 
283 1 7.60955 10.9985 17.0311 
306 1 4.63885 10.6922 19.8276 
318 2 7.6202 10.7259 19.8632 
287 2 10.5924 10.6302 16.6146 
314 1 10.7474 10.8189 19.7151 
339 1 13.4177 10.3807 16.4314 
374 2 13.9011 10.6175 19.8557 
343 2 16.5142 10.6118 16.6084 
347 1 19.4268 10.4806 16.8537 
370 1 16.5937 10.3603 19.8764 
382 2 19.5278 10.3882 19.8414 
351 2 22.7587 10.3561 16.7024 
378 1 22.4912 10.2834 19.4746 
392 2 1.44454 13.4719 16.7228 
417 1 1.20175 13.316 19.7245 
388 1 4.30006 13.5567 16.8523 
400 2 7.54249 13.7051 16.9556 
421 2 4.42818 13.6094 19.792 
425 1 7.47747 13.7482 20.0818 
396 1 10.3301 13.7034 16.8947 
429 2 10.5854 13.6057 19.8094 
456 2 13.5453 13.5262 16.6098 
481 1 13.4742 13.7329 19.6076 
452 1 16.4325 13.392 16.8028 
464 2 19.7778 13.4061 16.6946 
485 2 16.3644 13.3171 20.0081 
489 1 19.3637 13.6483 19.8752 
460 1 22.4134 13.197 16.7163 
493 2 22.4505 13.4247 19.798 
387 1 1.49237 16.4409 16.5899 
408 2 1.3771 19.2757 16.6103 
422 2 1.3604 16.5491 19.9324 
433 1 1.56422 19.2648 19.5451 
391 2 4.34217 16.6794 16.6786 
395 1 7.47072 16.7998 16.6166 
404 1 4.46002 19.3915 17.0014 
416 2 7.32978 19.6242 16.5923 
418 1 4.38962 16.4317 19.9951 
430 2 7.30954 16.5661 19.7122 
437 2 4.45517 19.7718 19.9182 
441 1 7.4929 19.9545 19.5567 
399 2 10.5196 16.531 16.6056 
412 1 10.6823 19.7878 16.784 
426 1 10.1647 16.7097 19.588 
445 2 10.2588 19.5898 19.6195 
451 1 13.2668 16.3779 16.6498 
472 2 13.5478 19.5339 16.6779 
486 2 13.5698 16.555 19.6476 
497 1 13.5197 19.7482 19.7581 
455 2 16.749 16.5059 16.9306 
459 1 19.6303 16.3505 17.1609 
468 1 16.4468 19.2353 16.8807 
480 2 19.5087 19.2911 16.7694 
482 1 16.44 16.3872 19.8844 
494 2 19.639 16.6032 19.8573 
501 2 16.5032 19.3499 19.6508 
505 1 19.2534 19.4718 19.7589 
463 2 22.589 16.4 16.9255 
476 1 22.6298 19.3474 16.7625 
509 2 22.5147 19.6134 19.7586 
403 1 1.9996 22.2926 16.6427 
438 2 1.64276 22.703 19.5873 
407 2 4.71855 22.7982 16.4821 
411 1 7.79106 22.7386 16.3094 
434 1 4.60276 22.6066 19.7484 
446 2 7.40657 22.7864 19.6059 
415 2 10.97 22.4276 16.7076 
442 1 10.6722 22.8424 19.4985 
467 1 13.7361 22.4045 16.5486 
502 2 13.5979 22.4361 19.5873 
471 2 16.839 22.4127 16.7315 
475 1 19.9014 22.6122 16.6293 
510 2 19.8341 22.2855 19.6272 
498 1 16.6502 22.502 19.4591 
479 2 22.8373 22.3862 16.5251 
506 1 22.5716 22.3244 19.738 
296 2 1.66977 1.62362 22.7716 
292 1 4.78832 1.68454 22.5526 
304 2 7.72436 1.7025 22.4301 
300 1 10.6895 1.7918 22.4083 
360 2 13.7179 1.54529 22.5486 
356 1 16.6591 1.12667 22.3706 
368 2 19.6838 1.22693 22.5813 
364 1 22.6805 1.56932 22.4359 
291 1 1.808 4.77563 22.4151 
312 2 1.58805 7.67162 22.968 
295 2 4.45402 4.4734 22.5639 
308 1 4.75873 7.6166 22.7947 
320 2 7.61045 7.65572 22.6508 
299 1 8.04937 4.63043 22.3195 
303 2 10.764 4.58359 22.8261 
316 1 10.8556 7.6515 22.7025 
355 1 13.7449 4.76164 22.7639 
376 2 13.8231 7.71023 22.4582 
359 2 16.659 4.39543 22.598 
363 1 19.744 4.4286 22.5295 
372 1 16.7189 7.34351 22.5741 
384 2 19.7355 7.57303 22.5431 
367 2 22.6603 4.48492 22.7161 
380 1 22.9197 7.63128 22.7315 
307 1 1.51864 10.4826 22.7285 
311 2 4.5135 10.6267 22.6737 
315 1 7.69645 10.8485 23.1295 
319 2 10.4974 10.5778 22.7785 
371 1 13.5594 10.8892 22.7616 
375 2 16.6397 10.4015 22.7794 
379 1 19.9184 10.5177 23.1785 
383 2 22.7315 10.6485 22.7083 
424 2 1.54852 13.5315 22.9167 
420 1 4.3428 13.6431 22.7624 
432 2 7.67272 13.657 22.7229 
428 1 10.3264 13.6165 22.6771 
488 2 13.2686 13.6798 22.7782 
484 1 16.7785 13.3117 22.9656 
496 2 19.5885 13.4618 22.7626 
492 1 22.6597 13.835 22.7735 
419 1 1.51063 16.5184 22.9419 
440 2 1.42821 19.7632 22.6219 
423 2 4.47168 16.6405 22.747 
427 1 7.3834 16.9393 22.5313 
436 1 4.54542 19.665 22.6963 
448 2 7.2743 19.7039 22.5856 
431 2 10.5143 16.7497 22.6498 
444 1 10.5607 19.6954 22.6432 
483 1 13.2519 16.8469 22.6989 
504 2 13.3439 19.6058 22.7633 
487 2 16.4768 16.6154 22.8596 
491 1 19.2466 16.7005 23.0348 
500 1 16.3671 19.6901 22.8454 
512 2 19.6042 19.5205 22.6791 
490 1 22.6277 16.85 20.3079 
495 2 22.7136 16.6107 22.9836 
508 1 22.7042 19.5746 22.7743 
435 1 1.3949 22.7493 22.8886 
439 2 4.48364 22.6305 22.6235 
443 1 7.45551 22.8871 22.3157 
447 2 10.6754 22.7007 22.6876 
499 1 13.5955 22.8861 22.7284 
503 2 16.5906 22.4598 22.7794 
507 1 19.8315 22.6997 22.4731 
511 2 22.7941 22.541 22.6964 
