# LAMMPS data file written by OVITO Basic 3.11.2

192 atoms
2 atom types

0.0 16.658164689 xlo xhi
0.0 14.4263934033 ylo yhi
0.0 21.339019 zlo zhi
-8.3290830335 0.0 0.0 xy xz yz

Masses

1 72.64  # Ge
2 127.6  # Te

Atoms  # atomic

1 1 2.0822788599 1.2021946403 1.04170689
2 1 2.0822788599 1.2021946403 11.71121639
3 1 8.1014967024e-06 4.8087929911 1.04170689
4 1 8.1014967024e-06 4.8087929911 11.71121639
5 1 -2.0822626569 8.4153913419 1.04170689
6 1 -2.0822626569 8.4153913419 11.71121639
7 1 -4.1645334153 12.0219896928 1.04170689
8 1 -4.1645334153 12.0219896928 11.71121639
9 1 6.2468200321 1.2021946403 1.04170689
10 1 6.2468200321 1.2021946403 11.71121639
11 1 4.1645492737 4.8087929911 1.04170689
12 1 4.1645492737 4.8087929911 11.71121639
13 1 2.0822785154 8.4153913419 1.04170689
14 1 2.0822785154 8.4153913419 11.71121639
15 1 7.7569950063e-06 12.0219896928 1.04170689
16 1 7.7569950063e-06 12.0219896928 11.71121639
17 1 10.4113612044 1.2021946403 1.04170689
18 1 10.4113612044 1.2021946403 11.71121639
19 1 8.329090446 4.8087929911 1.04170689
20 1 8.329090446 4.8087929911 11.71121639
21 1 6.2468196876 8.4153913419 1.04170689
22 1 6.2468196876 8.4153913419 11.71121639
23 1 4.1645489292 12.0219896928 1.04170689
24 1 4.1645489292 12.0219896928 11.71121639
25 1 14.5759023766 1.2021946403 1.04170689
26 1 14.5759023766 1.2021946403 11.71121639
27 1 12.4936316182 4.8087929911 1.04170689
28 1 12.4936316182 4.8087929911 11.71121639
29 1 10.4113608599 8.4153913419 1.04170689
30 1 10.4113608599 8.4153913419 11.71121639
31 1 8.3290901015 12.0219896928 1.04170689
32 1 8.3290901015 12.0219896928 11.71121639
33 1 -8.4459983978e-06 2.4044037106 4.59819583
34 1 -8.4459983978e-06 2.4044037106 15.26770533
35 1 -2.0822792044 6.0110020614 4.59819583
36 1 -2.0822792044 6.0110020614 15.26770533
37 1 -4.1645499628 9.6176004122 4.59819583
38 1 -4.1645499628 9.6176004122 15.26770533
39 1 -6.2468207211 13.224198763 4.59819583
40 1 -6.2468207211 13.224198763 15.26770533
41 1 4.1645327263 2.4044037106 4.59819583
42 1 4.1645327263 2.4044037106 15.26770533
43 1 2.0822619679 6.0110020614 4.59819583
44 1 2.0822619679 6.0110020614 15.26770533
45 1 -8.7905000932e-06 9.6176004122 4.59819583
46 1 -8.7905000932e-06 9.6176004122 15.26770533
47 1 -2.0822795489 13.224198763 4.59819583
48 1 -2.0822795489 13.224198763 15.26770533
49 1 8.3290738985 2.4044037106 4.59819583
50 1 8.3290738985 2.4044037106 15.26770533
51 1 6.2468031401 6.0110020614 4.59819583
52 1 6.2468031401 6.0110020614 15.26770533
53 1 4.1645323818 9.6176004122 4.59819583
54 1 4.1645323818 9.6176004122 15.26770533
55 1 2.0822616234 13.224198763 4.59819583
56 1 2.0822616234 13.224198763 15.26770533
57 1 12.4936150708 2.4044037106 4.59819583
58 1 12.4936150708 2.4044037106 15.26770533
59 1 10.4113443124 6.0110020614 4.59819583
60 1 10.4113443124 6.0110020614 15.26770533
61 1 8.329073554 9.6176004122 4.59819583
62 1 8.329073554 9.6176004122 15.26770533
63 1 6.2468027956 13.224198763 4.59819583
64 1 6.2468027956 13.224198763 15.26770533
65 1 0.0 0.0 8.15470611
66 1 0.0 0.0 18.82421561
67 1 -2.0822707584 3.6065983508 8.15470611
68 1 -2.0822707584 3.6065983508 18.82421561
69 1 -4.1645415168 7.2131967017 8.15470611
70 1 -4.1645415168 7.2131967017 18.82421561
71 1 -6.2468122751 10.8197950525 8.15470611
72 1 -6.2468122751 10.8197950525 18.82421561
73 1 4.1645411723 4.4408920985e-16 8.15470611
74 1 4.1645411723 4.4408920985e-16 18.82421561
75 1 2.0822704139 3.6065983508 8.15470611
76 1 2.0822704139 3.6065983508 18.82421561
77 1 -3.4450169561e-07 7.2131967017 8.15470611
78 1 -3.4450169561e-07 7.2131967017 18.82421561
79 1 -2.0822711029 10.8197950525 8.15470611
80 1 -2.0822711029 10.8197950525 18.82421561
81 1 8.3290823445 8.881784197e-16 8.15470611
82 1 8.3290823445 8.881784197e-16 18.82421561
83 1 6.2468115861 3.6065983508 8.15470611
84 1 6.2468115861 3.6065983508 18.82421561
85 1 4.1645408277 7.2131967017 8.15470611
86 1 4.1645408277 7.2131967017 18.82421561
87 1 2.0822700694 10.8197950525 8.15470611
88 1 2.0822700694 10.8197950525 18.82421561
89 1 12.4936235168 8.881784197e-16 8.15470611
90 1 12.4936235168 8.881784197e-16 18.82421561
91 1 10.4113527584 3.6065983508 8.15470611
92 1 10.4113527584 3.6065983508 18.82421561
93 1 8.329082 7.2131967017 8.15470611
94 1 8.329082 7.2131967017 18.82421561
95 1 6.2468112416 10.8197950525 8.15470611
96 1 6.2468112416 10.8197950525 18.82421561
97 2 0.0 0.0 2.51480339
98 2 0.0 0.0 13.18431289
99 2 -2.0822707584 3.6065983508 2.51480339
100 2 -2.0822707584 3.6065983508 13.18431289
101 2 -4.1645415168 7.2131967017 2.51480339
102 2 -4.1645415168 7.2131967017 13.18431289
103 2 -6.2468122751 10.8197950525 2.51480339
104 2 -6.2468122751 10.8197950525 13.18431289
105 2 4.1645411723 4.4408920985e-16 2.51480339
106 2 4.1645411723 4.4408920985e-16 13.18431289
107 2 2.0822704139 3.6065983508 2.51480339
108 2 2.0822704139 3.6065983508 13.18431289
109 2 -3.4450169561e-07 7.2131967017 2.51480339
110 2 -3.4450169561e-07 7.2131967017 13.18431289
111 2 -2.0822711029 10.8197950525 2.51480339
112 2 -2.0822711029 10.8197950525 13.18431289
113 2 8.3290823445 8.881784197e-16 2.51480339
114 2 8.3290823445 8.881784197e-16 13.18431289
115 2 6.2468115861 3.6065983508 2.51480339
116 2 6.2468115861 3.6065983508 13.18431289
117 2 4.1645408277 7.2131967017 2.51480339
118 2 4.1645408277 7.2131967017 13.18431289
119 2 2.0822700694 10.8197950525 2.51480339
120 2 2.0822700694 10.8197950525 13.18431289
121 2 12.4936235168 8.881784197e-16 2.51480339
122 2 12.4936235168 8.881784197e-16 13.18431289
123 2 10.4113527584 3.6065983508 2.51480339
124 2 10.4113527584 3.6065983508 13.18431289
125 2 8.329082 7.2131967017 2.51480339
126 2 8.329082 7.2131967017 13.18431289
127 2 6.2468112416 10.8197950525 2.51480339
128 2 6.2468112416 10.8197950525 13.18431289
129 2 2.0822788599 1.2021946403 6.07131367
130 2 2.0822788599 1.2021946403 16.74082317
131 2 8.1014967024e-06 4.8087929911 6.07131367
132 2 8.1014967024e-06 4.8087929911 16.74082317
133 2 -2.0822626569 8.4153913419 6.07131367
134 2 -2.0822626569 8.4153913419 16.74082317
135 2 -4.1645334153 12.0219896928 6.07131367
136 2 -4.1645334153 12.0219896928 16.74082317
137 2 6.2468200321 1.2021946403 6.07131367
138 2 6.2468200321 1.2021946403 16.74082317
139 2 4.1645492737 4.8087929911 6.07131367
140 2 4.1645492737 4.8087929911 16.74082317
141 2 2.0822785154 8.4153913419 6.07131367
142 2 2.0822785154 8.4153913419 16.74082317
143 2 7.7569950063e-06 12.0219896928 6.07131367
144 2 7.7569950063e-06 12.0219896928 16.74082317
145 2 10.4113612044 1.2021946403 6.07131367
146 2 10.4113612044 1.2021946403 16.74082317
147 2 8.329090446 4.8087929911 6.07131367
148 2 8.329090446 4.8087929911 16.74082317
149 2 6.2468196876 8.4153913419 6.07131367
150 2 6.2468196876 8.4153913419 16.74082317
151 2 4.1645489292 12.0219896928 6.07131367
152 2 4.1645489292 12.0219896928 16.74082317
153 2 14.5759023766 1.2021946403 6.07131367
154 2 14.5759023766 1.2021946403 16.74082317
155 2 12.4936316182 4.8087929911 6.07131367
156 2 12.4936316182 4.8087929911 16.74082317
157 2 10.4113608599 8.4153913419 6.07131367
158 2 10.4113608599 8.4153913419 16.74082317
159 2 8.3290901015 12.0219896928 6.07131367
160 2 8.3290901015 12.0219896928 16.74082317
161 2 -8.4459983978e-06 2.4044037106 9.62780261
162 2 -8.4459983978e-06 2.4044037106 20.29731211
163 2 -2.0822792044 6.0110020614 9.62780261
164 2 -2.0822792044 6.0110020614 20.29731211
165 2 -4.1645499628 9.6176004122 9.62780261
166 2 -4.1645499628 9.6176004122 20.29731211
167 2 -6.2468207211 13.224198763 9.62780261
168 2 -6.2468207211 13.224198763 20.29731211
169 2 4.1645327263 2.4044037106 9.62780261
170 2 4.1645327263 2.4044037106 20.29731211
171 2 2.0822619679 6.0110020614 9.62780261
172 2 2.0822619679 6.0110020614 20.29731211
173 2 -8.7905000932e-06 9.6176004122 9.62780261
174 2 -8.7905000932e-06 9.6176004122 20.29731211
175 2 -2.0822795489 13.224198763 9.62780261
176 2 -2.0822795489 13.224198763 20.29731211
177 2 8.3290738985 2.4044037106 9.62780261
178 2 8.3290738985 2.4044037106 20.29731211
179 2 6.2468031401 6.0110020614 9.62780261
180 2 6.2468031401 6.0110020614 20.29731211
181 2 4.1645323818 9.6176004122 9.62780261
182 2 4.1645323818 9.6176004122 20.29731211
183 2 2.0822616234 13.224198763 9.62780261
184 2 2.0822616234 13.224198763 20.29731211
185 2 12.4936150708 2.4044037106 9.62780261
186 2 12.4936150708 2.4044037106 20.29731211
187 2 10.4113443124 6.0110020614 9.62780261
188 2 10.4113443124 6.0110020614 20.29731211
189 2 8.329073554 9.6176004122 9.62780261
190 2 8.329073554 9.6176004122 20.29731211
191 2 6.2468027956 13.224198763 9.62780261
192 2 6.2468027956 13.224198763 20.29731211
